24
Atoms. Timestep: 0
C 0 0.71 0
C 1.22976 1.42 0
C 1.22976 2.84 0
C 0 3.55 0
C 0 4.97 0
C 1.22976 5.68 0
C 1.22976 7.1 0
C 0 7.81 0
C 2.45951 0.71 0
C 3.68927 1.42 0
C 3.68927 2.84 0
C 2.45951 3.55 0
C 2.45951 4.97 0
C 3.68927 5.68 0
C 3.68927 7.1 0
C 2.45951 7.81 0
C 4.91902 0.71 0
C 6.14878 1.42 0
C 6.14878 2.84 0
C 4.91902 3.55 0
C 4.91902 4.97 0
C 6.14878 5.68 0
C 6.14878 7.1 0
C 4.91902 7.81 0
24
Atoms. Timestep: 10
C -0.00368927 0.706527 1.15962e-20
C 1.2273 1.41722 -2.57364e-20
C 1.2273 2.83861 2.525e-20
C -0.00368927 3.54931 7.96396e-21
C -0.00368927 4.97069 1.79437e-20
C 1.2273 5.68139 -1.11751e-20
C 1.2273 7.10278 1.25727e-20
C -0.00368927 7.81347 -7.16716e-21
C 2.45828 0.706527 1.62489e-20
C 3.68927 1.41722 -1.49779e-20
C 3.68927 2.83861 -1.04869e-20
C 2.45828 3.54931 5.5313e-21
C 2.45828 4.97069 -1.422e-21
C 3.68927 5.68139 -1.23206e-22
C 3.68927 7.10278 5.22601e-21
C 2.45828 7.81347 -5.24991e-21
C 4.92025 0.706527 -6.93554e-22
C 6.15124 1.41722 -1.17759e-20
C 6.15124 2.83861 -1.53995e-20
C 4.92025 3.54931 2.04066e-20
C 4.92025 4.97069 2.17886e-20
C 6.15124 5.68139 -1.42604e-20
C 6.15124 7.10278 -3.48553e-20
C 4.92025 7.81347 8.79534e-21
24
Atoms. Timestep: 20
C -0.00737854 0.703061 -6.90037e-21
C 1.22484 1.41445 -5.69228e-21
C 1.22484 2.83722 -9.84797e-21
C -0.00737854 3.54862 1.9702e-20
C -0.00737854 4.97138 -2.0707e-21
C 1.22484 5.68278 5.93566e-21
C 1.22484 7.10555 1.22275e-20
C -0.00737854 7.81694 -5.91666e-21
C 2.45705 0.703061 3.43964e-20
C 3.68927 1.41445 -2.58953e-20
C 3.68927 2.83722 2.21532e-20
C 2.45705 3.54862 -3.20496e-20
C 2.45705 4.97138 -2.08845e-20
C 3.68927 5.68278 2.25468e-21
C 3.68927 7.10555 3.13848e-20
C 2.45705 7.81694 -7.0242e-21
C 4.92148 0.703061 -1.46927e-20
C 6.1537 1.41445 3.52909e-21
C 6.1537 2.83722 -1.46524e-20
C 4.92148 3.54862 5.02304e-21
C 4.92148 4.97138 -1.55101e-20
C 6.1537 5.68278 3.7695e-21
C 6.1537 7.10555 1.05791e-21
C 4.92148 7.81694 1.97028e-20
24
Atoms. Timestep: 30
C -0.0110678 0.699604 1.15632e-21
C 1.22238 1.41169 -5.26301e-20
C 1.22238 2.83584 5.9605e-20
C -0.0110678 3.54793 -6.25047e-20
C -0.0110678 4.97207 4.6507e-20
C 1.22238 5.68416 -6.32255e-20
C 1.22238 7.10831 3.01336e-20
C -0.0110678 7.8204 1.13837e-20
C 2.45582 0.699604 8.07628e-20
C 3.68927 1.41169 2.22216e-20
C 3.68927 2.83584 -2.82678e-21
C 2.45582 3.54793 8.33336e-21
C 2.45582 4.97207 3.20647e-20
C 3.68927 5.68416 3.08754e-22
C 3.68927 7.10831 2.30269e-20
C 2.45582 7.8204 -8.17843e-20
C 4.92271 0.699604 1.34523e-20
C 6.15616 1.41169 -4.273e-20
C 6.15616 2.83584 7.77682e-21
C 4.92271 3.54793 2.47816e-20
C 4.92271 4.97207 1.58237e-21
C 6.15616 5.68416 -2.20789e-20
C 6.15616 7.10831 -1.61096e-20
C 4.92271 7.8204 -1.9207e-20
24
Atoms. Timestep: 40
C -0.0147571 0.696164 -2.32621e-20
C 1.21992 1.40894 8.89973e-20
C 1.21992 2.83446 -4.23042e-20
C -0.0147571 3.54724 -3.13923e-20
C -0.0147571 4.97276 -2.85754e-20
C 1.21992 5.68554 -2.36258e-20
C 1.21992 7.11106 -1.31165e-20
C -0.0147571 7.82384 -2.21504e-20
C 2.45459 0.696164 6.76037e-22
C 3.68927 1.40894 1.49159e-19
C 3.68927 2.83446 -4.4085e-20
C 2.45459 3.54724 -3.35499e-20
C 2.45459 4.97276 -8.36407e-20
C 3.68927 5.68554 2.79872e-20
C 3.68927 7.11106 -8.35873e-20
C 2.45459 7.82384 8.0238e-20
C 4.92394 0.696164 -4.31903e-21
C 6.15862 1.40894 -1.88823e-20
C 6.15862 2.83446 -1.63992e-20
C 4.92394 3.54724 4.12123e-20
C 4.92394 4.97276 1.71929e-20
C 6.15862 5.68554 9.39531e-20
C 6.15862 7.11106 -3.52414e-20
C 4.92394 7.82384 4.71576e-21
24
Atoms. Timestep: 50
C -0.0179882 0.693169 -9.52834e-18
C 1.21776 1.40664 4.28435e-19
C 1.21776 2.83323 -4.35615e-18
C -0.0179882 3.5467 -1.85791e-18
C -0.0179882 4.9733 -1.20451e-17
C 1.21776 5.68677 9.90866e-19
C 1.21776 7.11336 -2.06568e-18
C -0.0179882 7.82683 9.31754e-18
C 2.45352 0.693169 -5.24222e-18
C 3.68927 1.40664 -9.15898e-18
C 3.68927 2.83323 3.89543e-18
C 2.45352 3.5467 1.35381e-19
C 2.45352 4.9733 5.97192e-18
C 3.68927 5.68677 -1.59492e-17
C 3.68927 7.11336 2.98276e-18
C 2.45352 7.82683 1.4663e-17
C 4.92502 0.693169 5.53555e-18
C 6.16077 1.40664 -5.80962e-18
C 6.16077 2.83323 -1.59744e-18
C 4.92502 3.5467 2.95553e-18
C 4.92502 4.9733 1.63458e-17
C 6.16077 5.68677 6.12527e-18
C 6.16077 7.11336 -4.83387e-18
C 4.92502 7.82683 3.09706e-18
24
Atoms. Timestep: 57
C -0.0179044 0.693076 9.20323e-19
C 1.21782 1.40658 -1.49755e-18
C 1.21782 2.83319 -1.19254e-18
C -0.0179044 3.5467 1.19987e-18
C -0.0179044 4.9733 2.00472e-19
C 1.21782 5.68681 5.83294e-19
C 1.21782 7.11342 3.24162e-19
C -0.0179044 7.82692 2.39723e-19
C 2.45354 0.693076 -1.53308e-18
C 3.68927 1.40658 -9.56828e-19
C 3.68927 2.83319 1.45792e-18
C 2.45354 3.5467 7.29321e-19
C 2.45354 4.9733 -3.20047e-19
C 3.68927 5.68681 -1.42418e-18
C 3.68927 7.11342 -1.37118e-19
C 2.45354 7.82692 9.99984e-19
C 4.92499 0.693076 5.97793e-19
C 6.16072 1.40658 -1.22919e-18
C 6.16072 2.83319 -7.28441e-19
C 4.92499 3.5467 1.17773e-18
C 4.92499 4.9733 6.57163e-19
C 6.16072 5.68681 -5.71671e-19
C 6.16072 7.11342 5.97084e-19
C 4.92499 7.82692 -9.4195e-20
24
Atoms. Timestep: 60
C 7.39572 0.691918 -0.00128453
C 1.21751 1.40783 0.00242776
C 1.21647 2.8314 -8.97717e-05
C 7.39703 3.54558 0.000433045
C 7.39583 4.97179 -0.000814894
C 1.21992 5.68755 0.00221155
C 1.21758 7.11296 -0.00172823
C 7.39676 7.82621 -0.00031729
C 2.45279 0.693143 -0.00157632
C 3.69023 1.40458 -0.000158104
C 3.69004 2.83239 0.000867131
C 2.45334 3.54809 -0.00135452
C 2.45184 4.97205 0.00143181
C 3.69091 5.68876 -0.000935856
C 3.68759 7.1131 0.000261519
C 2.45441 7.82862 0.00170775
C 4.92625 0.694478 0.000543366
C 6.16044 1.40727 -0.00138764
C 6.16088 2.83263 -0.00110826
C 4.92513 3.54538 -0.00176283
C 4.927 4.97552 0.000695041
C 6.15961 5.68731 0.000380667
C 6.16071 7.11226 -2.64096e-05
C 4.92338 7.82921 0.00133639
24
Atoms. Timestep: 70
C 7.39461 0.689605 -0.00577306
C 1.21467 1.40847 0.00887469
C 1.21501 2.82966 0.000801311
C 7.397 3.54288 0.00121051
C 7.395 4.97005 -0.00208844
C 1.22174 5.68871 0.00783173
C 1.21845 7.11352 -0.00524989
C 7.3962 7.82409 -0.00216528
C 2.45084 0.693183 -0.00799248
C 3.69245 1.40027 -0.00185757
C 3.6902 2.83047 0.00140442
C 2.4504 3.54837 -0.00481601
C 2.4503 4.97102 0.00676453
C 3.69336 5.69264 -0.00203201
C 3.68424 7.11424 0.00146481
C 2.45273 7.8325 0.00554835
C 4.92963 0.697297 0.00254051
C 6.16138 1.40799 -0.00613824
C 6.16162 2.83235 -0.00396806
C 4.92601 3.54495 -0.00674775
C 4.92949 4.97818 0.00224449
C 6.15912 5.68794 0.00237828
C 6.15873 7.1103 0.00150195
C 4.92149 7.83339 0.00536329
24
Atoms. Timestep: 80
C 7.39561 0.689615 -0.0100894
C 1.21282 1.40455 0.0111775
C 1.21643 2.83335 0.00241692
C 7.396 3.54467 0.00284052
C 7.39721 4.97173 -0.00209125
C 1.21562 5.68701 0.0104834
C 1.22064 7.11376 -0.00470973
C 7.39399 7.82142 -0.00491473
C 2.45112 0.695761 -0.013573
C 3.69105 1.40548 -0.00425506
C 3.68792 2.82993 0.000273675
C 2.45015 3.54168 -0.00521637
C 2.45823 4.9748 0.0116232
C 3.68987 5.68972 0.000194308
C 3.688 7.12121 0.00397258
C 2.44808 7.83011 0.00730122
C 4.92831 0.696397 0.00294941
C 6.16524 1.40751 -0.0103941
C 6.16056 2.83304 -0.007665
C 4.9244 3.5491 -0.0100441
C 4.92591 4.97449 0.00222213
C 6.16334 5.68619 0.00355047
C 6.15422 7.11592 0.00327061
C 4.92416 7.8288 0.00678643
24
Atoms. Timestep: 90
C 7.39762 0.689013 -0.0117204
C 1.21776 1.40494 0.00951206
C 1.21415 2.83472 0.00344053
C 7.39369 3.54933 0.00269164
C 7.40002 4.97467 0.00172028
C 1.21569 5.68549 0.00994794
C 1.21567 7.11166 -0.00133518
C 7.39348 7.82318 -0.00618939
C 2.45236 0.696934 -0.014952
C 3.68689 1.41267 -0.00821444
C 3.68687 2.83347 -0.003055
C 2.45353 3.54152 -0.00373335
C 2.46018 4.97447 0.0137871
C 3.68803 5.68992 0.00463601
C 3.69191 7.12367 0.00541431
C 2.45002 7.82797 0.00527985
C 4.92386 0.692585 0.000773103
C 6.16405 1.40665 -0.0125578
C 6.15893 2.83591 -0.0125081
C 4.92121 3.55138 -0.010858
C 4.92118 4.9729 0.000301199
C 6.16549 5.68452 0.0022713
C 6.15614 7.11657 0.00354641
C 4.92618 7.82539 0.00793734
24
Atoms. Timestep: 100
C 7.40001 0.691233 -0.0100195
C 1.22125 1.40849 0.00221513
C 1.21259 2.83398 0.0039404
C 7.39305 3.5517 0.00223643
C 7.39914 4.97628 0.00670523
C 1.22457 5.68313 0.0076321
C 1.21216 7.11008 0.00309044
C 7.39414 7.82833 -0.007287
C 2.45312 0.693426 -0.0127195
C 3.68571 1.41138 -0.0117819
C 3.68896 2.83853 -0.00747703
C 2.45444 3.54827 -0.000842174
C 2.45369 4.97075 0.0131393
C 3.69023 5.6939 0.00873194
C 3.68953 7.11514 0.0079055
C 2.45486 7.82991 0.00246215
C 4.92074 0.692446 -0.00472355
C 6.15828 1.40647 -0.013648
C 6.15728 2.83803 -0.0158424
C 4.91988 3.54942 -0.0104603
C 4.92164 4.97749 0.000383597
C 6.16135 5.68618 0.00114287
C 6.16376 7.10833 0.00210416
C 4.92664 7.82984 0.00971183
24
Atoms. Timestep: 110
C 7.39727 0.698874 -0.00813367
C 1.21843 1.41091 -0.0076952
C 1.21479 2.83502 0.0035856
C 7.39298 3.55162 0.000797059
C 7.39686 4.9762 0.0102536
C 1.22642 5.68333 0.00548348
C 1.21926 7.11397 0.00530388
C 7.39803 7.82911 -0.00641878
C 2.45392 0.690484 -0.0062078
C 3.68687 1.40837 -0.01583
C 3.69002 2.83782 -0.0114444
C 2.44919 3.55136 0.00449213
C 2.45363 4.97115 0.0114355
C 3.68931 5.69146 0.0124567
C 3.68817 7.11102 0.00976194
C 2.45384 7.8293 -0.0005541
C 4.92061 0.696561 -0.0120672
C 6.15546 1.40919 -0.0149573
C 6.15634 2.83532 -0.0180528
C 4.92269 3.55015 -0.00951341
C 4.92371 4.9802 0.00162154
C 6.15807 5.68683 0.00181938
C 6.16311 7.10817 0.00024156
C 4.92611 7.83029 0.00988937
24
Atoms. Timestep: 120
C 7.38981 0.70189 -0.00572669
C 1.21441 1.40882 -0.0160578
C 1.21699 2.83866 0.00196322
C 7.39341 3.5486 -0.000766557
C 7.39532 4.97614 0.0111708
C 1.21802 5.68857 0.00416479
C 1.22565 7.11598 0.00746138
C 7.40193 7.82893 -0.00424028
C 2.45269 0.692496 -0.00126077
C 3.68676 1.4075 -0.0192831
C 3.68641 2.83369 -0.0153918
C 2.44713 3.54785 0.00951715
C 2.45697 4.97601 0.00988523
C 3.68826 5.68377 0.0156213
C 3.68986 7.11418 0.0115097
C 2.45213 7.82435 -0.00149856
C 4.92248 0.699779 -0.0173471
C 6.15614 1.41255 -0.0162222
C 6.15719 2.83435 -0.0214949
C 4.92579 3.5529 -0.00801928
C 4.92395 4.97706 0.00315097
C 6.15978 5.68721 0.00321081
C 6.15701 7.11749 -0.000296244
C 4.92424 7.82791 0.00626125
24
Atoms. Timestep: 130
C 7.3867 0.695822 -0.00481619
C 1.21332 1.4079 -0.0187277
C 1.217 2.83695 0.000573219
C 7.39598 3.54618 -0.00349233
C 7.39357 4.97462 0.0102699
C 1.21294 5.69243 0.00581462
C 1.21995 7.11283 0.00788644
C 7.39857 7.83147 -0.00181424
C 2.4473 0.695326 -4.34396e-05
C 3.68592 1.40984 -0.0212638
C 3.68415 2.83402 -0.0177339
C 2.45319 3.54597 0.0116072
C 2.45467 4.97699 0.0114238
C 3.69006 5.68194 0.0187349
C 3.6902 7.11452 0.0147656
C 2.45546 7.82456 -0.000653798
C 4.92315 0.696451 -0.0200691
C 6.15576 1.41204 -0.0180253
C 6.15841 2.84066 -0.023986
C 4.92285 3.54992 -0.00807715
C 4.92604 4.9719 0.00444049
C 6.16107 5.69165 0.00595936
C 6.15725 7.1242 0.00143735
C 4.92128 7.83149 0.00114878
24
Atoms. Timestep: 140
C 7.3917 0.691451 -0.00408019
C 1.21222 1.40829 -0.0165512
C 1.21731 2.83039 -0.0018325
C 7.39756 3.54802 -0.00526475
C 7.39305 4.9749 0.00758171
C 1.21366 5.69081 0.0107028
C 1.21142 7.116 0.00636076
C 7.38994 7.83164 0.00191171
C 2.44698 0.695912 -0.00390149
C 3.68416 1.4106 -0.0220425
C 3.68723 2.83531 -0.0163588
C 2.4555 3.54986 0.0102106
C 2.44749 4.97524 0.0147257
C 3.69308 5.68798 0.019972
C 3.69033 7.11324 0.0180469
C 2.45758 7.82818 0.00248346
C 4.91986 0.694418 -0.0205644
C 6.15518 1.4114 -0.0186463
C 6.16023 2.84234 -0.0238014
C 4.91829 3.54522 -0.00969253
C 4.92995 4.97084 0.00649352
C 6.16034 5.6956 0.0104677
C 6.16122 7.12166 0.00375582
C 4.92078 7.83462 -0.00425748
24
Atoms. Timestep: 150
C 7.39321 0.6951 -0.00690154
C 1.21057 1.40574 -0.0122708
C 1.2195 2.83033 -0.00590331
C 7.399 3.55167 -0.00886355
C 7.39542 4.97695 0.00514257
C 1.21398 5.68995 0.0158518
C 1.20983 7.12253 0.00676946
C 7.38808 7.82909 0.00482286
C 2.44982 0.696382 -0.0103881
C 3.68104 1.40908 -0.0213618
C 3.68831 2.83485 -0.0136625
C 2.45068 3.55193 0.00427
C 2.44674 4.97692 0.0186688
C 3.69147 5.69163 0.019795
C 3.68962 7.11533 0.0189889
C 2.4514 7.83196 0.00702935
C 4.91606 0.698548 -0.0198895
C 6.15755 1.41124 -0.019407
C 6.16106 2.83528 -0.0226539
C 4.92176 3.54708 -0.0117455
C 4.92765 4.97409 0.00839191
C 6.15932 5.6943 0.0151718
C 6.15729 7.1151 0.00780702
C 4.92307 7.83077 -0.0093565
