LAMMPS (29 Oct 2020)
#Input example Generated by GS JUNG@ornl
units           metal
dimension       3
boundary        p p p
atom_style      full
atom_modify     sort 0 0.0    # turn off sorting of the coordinates
read_data       graphene.data
Reading data file ...
  orthogonal box = (0.0000000 0.0000000 -16.750000) to (7.3785364 8.5200000 16.750000)
  1 by 1 by 1 MPI processor grid
  reading atoms ...
  24 atoms
Finding 1-2 1-3 1-4 neighbors ...
  special bond factors lj:    0.0      0.0      0.0     
  special bond factors coul:  0.0      0.0      0.0     
     0 = max # of 1-2 neighbors
     0 = max # of 1-3 neighbors
     0 = max # of 1-4 neighbors
     1 = max # of special neighbors
  special bonds CPU = 0.000 seconds
  read_data CPU = 0.003 seconds

# initialize system

velocity	all create 10.0 87287 loop geom

pair_style      zero 1.0
pair_coeff	* *

neighbor        1.0 bin
neigh_modify    every 1 delay 0 check yes

variable	dt equal 0.0005
timestep        ${dt}
timestep        0.0005
dump		equil all xyz 10 equil.xyz
dump_modify     equil element C H

thermo      	10
thermo_style 	custom step temp ke pe press pxx pyy pzz xlo xhi ylo yhi
thermo_modify   norm no flush yes

fix             integ   all nve
fix             2 all dftbp dftb_in.hsd NULL
fix_modify      2 energy yes
fix             therm   all langevin  10.0 10.0  0.1 699483

fix	        emin all box/relax x 0.0 y 0.0
min_style       cg
min_modify      dmax 0.2
min_modify      line quadratic
minimize        0.0 1.0e-8 1000 10000
Neighbor list info ...
  update every 1 steps, delay 0 steps, check yes
  max neighbors/atom: 2000, page size: 100000
  master list distance cutoff = 2
  ghost atom cutoff = 2
  binsize = 1, bins = 8 9 34
  1 neighbor lists, perpetual/occasional/extra = 1 0 0
  (1) pair zero, perpetual
      attributes: half, newton on
      pair build: half/bin/newton
      stencil: half/bin/3d/newton
      bin: standard
Per MPI rank memory allocation (min/avg/max) = 8.027 | 8.027 | 8.027 Mbytes
Step Temp KinEng PotEng Press Pxx Pyy Pzz Xlo Xhi Ylo Yhi 
       0           10  0.029729833   -1133.1011    5497.1291    8324.1307    8152.1381    15.118468            0    7.3785364            0         8.52 
      10           10  0.029729833   -1133.1202    4346.8736    6585.5777    6439.9546    15.088609 -0.0036892682    7.3822257 -0.0041660961    8.5241661 
      20           10  0.029729833   -1133.1349    3208.5802    4863.9905    4746.6914    15.058866 -0.0073785364     7.385915 -0.0083241542    8.5283242 
      30           10  0.029729833   -1133.1452    2082.7185    3159.4933    3073.6329    15.029254 -0.011067805    7.3896042 -0.012470162    8.5324702 
      40           10  0.029729833   -1133.1511    970.48421    1472.4024    1424.0504    14.999805 -0.014757073    7.3932935 -0.016594455    8.5365945 
      50           10  0.029729833   -1133.1527    15.416113   -7.7285192      39.0025    14.974358  -0.01798824    7.3965247 -0.020128124    8.5401281 
      57           10  0.029729833   -1133.1527    14.934718    12.175276    17.654534    14.974345 -0.017904371    7.3964408 -0.020228623    8.5402286 
Loop time of 7.84398 on 1 procs for 57 steps with 24 atoms

99.8% CPU use with 1 MPI tasks x no OpenMP threads

Minimization stats:
  Stopping criterion = force tolerance
  Energy initial, next-to-last, final = 
     -1133.10109389847  -1133.15267095502  -1133.15267095502
  Force two-norm initial, final = 15.287002 3.1350402e-09
  Force max component initial, final = 10.925501 2.3555297e-09
  Final line search alpha, max atom move = 1.0000000 2.3555297e-09
  Iterations, force evaluations = 57 66

MPI task timing breakdown:
Section |  min time  |  avg time  |  max time  |%varavg| %total
---------------------------------------------------------------
Pair    | 0.00014114 | 0.00014114 | 0.00014114 |   0.0 |  0.00
Bond    | 8.8215e-06 | 8.8215e-06 | 8.8215e-06 |   0.0 |  0.00
Neigh   | 0          | 0          | 0          |   0.0 |  0.00
Comm    | 0.00021601 | 0.00021601 | 0.00021601 |   0.0 |  0.00
Output  | 0.00062084 | 0.00062084 | 0.00062084 |   0.0 |  0.01
Modify  | 7.8409     | 7.8409     | 7.8409     |   0.0 | 99.96
Other   |            | 0.002073   |            |       |  0.03

Nlocal:        24.0000 ave          24 max          24 min
Histogram: 1 0 0 0 0 0 0 0 0 0
Nghost:        30.0000 ave          30 max          30 min
Histogram: 1 0 0 0 0 0 0 0 0 0
Neighs:        36.0000 ave          36 max          36 min
Histogram: 1 0 0 0 0 0 0 0 0 0

Total # of neighbors = 36
Ave neighs/atom = 1.5000000
Ave special neighs/atom = 0.0000000
Neighbor list builds = 0
Dangerous builds = 0
unfix		emin




run 		100
Per MPI rank memory allocation (min/avg/max) = 6.902 | 6.902 | 6.902 Mbytes
Step Temp KinEng PotEng Press Pxx Pyy Pzz Xlo Xhi Ylo Yhi 
      57           10  0.029729833   -1133.1527    14.934718    12.175276    17.654534    14.974345 -0.017904371    7.3964408 -0.020228623    8.5402286 
      60    9.1882411  0.027316488   -1133.1488    18.506569   -184.65921    226.26948    13.909433 -0.017904371    7.3964408 -0.020228623    8.5402286 
      70    4.1850833  0.012442183   -1133.1312    21.373919   -348.36653    410.70656    1.7817339 -0.017904371    7.3964408 -0.020228623    8.5402286 
      80     6.647315  0.019762357   -1133.1344    3.9047476    306.97868    -287.9218   -7.3426362 -0.017904371    7.3964408 -0.020228623    8.5402286 
      90    6.3067073  0.018749736   -1133.1289    15.001552     322.5955   -274.62682   -2.9640265 -0.017904371    7.3964408 -0.020228623    8.5402286 
     100      7.24396  0.021536172   -1133.1336    15.428996   -342.50671    383.20304    5.5906601 -0.017904371    7.3964408 -0.020228623    8.5402286 
     110    7.9035728   0.02349719   -1133.1354    15.108198   -267.06376    305.68867    6.6996835 -0.017904371    7.3964408 -0.020228623    8.5402286 
     120    6.2025732  0.018440147   -1133.1304    6.9736121    412.72612   -389.98738   -1.8179061 -0.017904371    7.3964408 -0.020228623    8.5402286 
     130    6.9974775  0.020803384   -1133.1325   -3.8995729    204.30964   -209.95351   -6.0548432 -0.017904371    7.3964408 -0.020228623    8.5402286 
     140     6.118228   0.01818939   -1133.1292   -1.0582175   -346.75762    342.26844    1.3145196 -0.017904371    7.3964408 -0.020228623    8.5402286 
     150    8.6837533  0.025816654   -1133.1361   -1.6112214   -199.57232    189.04933    5.6893187 -0.017904371    7.3964408 -0.020228623    8.5402286 
     157    7.8738998  0.023408973   -1133.1338   -3.8049387     141.7962   -154.03084   0.81982362 -0.017904371    7.3964408 -0.020228623    8.5402286 
Loop time of 65.3897 on 1 procs for 100 steps with 24 atoms

Performance: 0.066 ns/day, 363.276 hours/ns, 1.529 timesteps/s
99.6% CPU use with 1 MPI tasks x no OpenMP threads

MPI task timing breakdown:
Section |  min time  |  avg time  |  max time  |%varavg| %total
---------------------------------------------------------------
Pair    | 0.00010228 | 0.00010228 | 0.00010228 |   0.0 |  0.00
Bond    | 1.5974e-05 | 1.5974e-05 | 1.5974e-05 |   0.0 |  0.00
Neigh   | 0          | 0          | 0          |   0.0 |  0.00
Comm    | 0.0003283  | 0.0003283  | 0.0003283  |   0.0 |  0.00
Output  | 0.0014193  | 0.0014193  | 0.0014193  |   0.0 |  0.00
Modify  | 65.387     | 65.387     | 65.387     |   0.0 |100.00
Other   |            | 0.0009947  |            |       |  0.00

Nlocal:        24.0000 ave          24 max          24 min
Histogram: 1 0 0 0 0 0 0 0 0 0
Nghost:        30.0000 ave          30 max          30 min
Histogram: 1 0 0 0 0 0 0 0 0 0
Neighs:        36.0000 ave          36 max          36 min
Histogram: 1 0 0 0 0 0 0 0 0 0

Total # of neighbors = 36
Ave neighs/atom = 1.5000000
Ave special neighs/atom = 0.0000000
Neighbor list builds = 0
Dangerous builds = 0

Total wall time: 0:01:13
